ID,FF,composition,T,Hydration,Q_FF,Q_OP,Q_OP_tails,Q_OP_heads
82,slipids,CHOL:POPC (1:1),298.0,39.7,3.3858,0.5992,0.5458,0.7061
305,Berger and Modified Höltje model for cholesterol,CHOL:POPC (1:15),298.0,57.0,0.7548,0.4485,0.6601,0.0253
589,Berger and Modified Höltje model for cholesterol,CHOL:POPC (9:55),298.0,66.3,0.2661,0.3716,0.5428,0.0291
299,Berger and Modified Höltje model for cholesterol,CHOL:POPC (1:1),298.0,80.6,1.2858,0.1575,0.2028,0.0667
206,Berger and Modified Höltje model for cholesterol,CHOL:POPC (11:21),298.0,53.1,0.329,0.1455,0.1695,0.0978
15,Berger and Modified Höltje model for cholesterol,CHOL:POPC (39:25),298.0,45.2,,0.1284,0.1528,0.0798
58,CHARMM36,POPC:POPG (175:44),298.0,60.0,,0.0063,,0.0063
503,Lipid17,POPC:POPG (1:1),298.0,105.2,,0.0037,,0.0037
307,Slipids,POPC:POPG (1:1),298.0,50.0,,0.0033,,0.0033
592,CHARMM36,POPC:POPG (1:1),298.0,105.0,,0.0024,,0.0024
429,lipid17ecc,POPC:POPG (175:44),298.0,60.0,,0.0014,,0.0014
146,lipid17ecc,POPC:POPG (1:1),298.0,99.6,,0.0014,,0.0014
317,lipid17,POPC:POPG (175:44),298.0,60.0,,0.0004,,0.0004